48
Energy:     504.5980870
C        -0.76246000     -2.83679000      0.18661000
C        -0.36970000     -4.10429000      0.10183000
C         0.98565000     -4.07119000      0.03606000
C         1.32904000     -2.78484000      0.07020000
N         0.26063000     -2.02742000      0.03546000
C         2.66404000     -2.33326000      0.05920000
C         2.94808000     -1.08625000     -0.12249000
C         4.18754000     -0.63070000     -0.31836000
C         4.07831000      0.67474000     -0.65025000
C         2.80036000      0.96440000     -0.49430000
N         2.08945000     -0.09689000     -0.17605000
C         2.37366000      2.28064000     -0.44747000
C         1.16053000      2.58339000     -0.20651000
C         0.76901000      3.84731000     -0.06213000
C        -0.56332000      3.81412000      0.06707000
C        -0.89897000      2.53240000     -0.01086000
N         0.15399000      1.74380000     -0.12142000
C        -2.11196000      2.16604000     -0.06437000
C        -2.44612000      0.83645000     -0.11127000
C        -3.69873000      0.45969000     -0.28429000
C        -3.71202000     -0.84985000      0.01295000
C        -2.44216000     -1.21948000      0.16975000
N        -1.64210000     -0.18375000      0.08255000
C        -2.10161000     -2.45184000      0.28814000
H        -1.04306000     -4.91443000      0.05446000
H         1.68924000     -4.84812000     -0.07030000
H         3.44940000     -3.05591000      0.10948000
H         5.04294000     -1.22286000     -0.22953000
H         4.80789000      1.39916000     -0.89043000
H         3.11293000      3.04977000     -0.52846000
H         1.41816000      4.67084000     -0.14051000
H        -1.25816000      4.60444000      0.11084000
H        -2.90941000      2.88224000     -0.05311000
H        -4.52192000     -1.50954000      0.05021000
H        -2.85286000     -3.20871000      0.33755000
Fe        0.22365000     -0.15617000     -0.04358000
S         0.12290000     -0.03159000      2.01289000
C         1.72433000     -0.09707000      2.75613000
C         1.25789000     -0.37476000      4.16517000
N         2.47913000      1.16630000      2.61859000
H         2.39283000     -0.93285000      2.46416000
H         3.15060000      1.25791000      3.40555000
H         1.89046000      2.02625000      2.53215000
O         2.15489000     -0.34776000      5.13826000
O         0.10544000     -0.71922000      4.45215000
H        -4.48245000      1.11786000     -0.55761000
O         0.16113000     -0.24923000     -1.72365000
H         3.11914000      1.11757000      1.80520000
