1665
i =    15001, time =     7500.500, E =     -2006.8342977331
C        13.40713838     26.97947807     10.03023269
C        12.79896254     27.21554609      8.79320112
C        13.33562036     27.85900567     11.10924584
C        12.54378130     29.04996601     10.80426556
C        11.88024016     29.29686729      9.60842225
C        11.97725094     28.30310951      8.57719928
H        11.45161525     28.47051718      7.63837878
H        13.01247839     26.41161232      8.05366786
H        14.06813280     26.14588563     10.16726096
H        12.41850642     29.78519544     11.63379474
H        11.31652931     30.22501702      9.37834407
C        14.15407374     27.67005606     12.39153352
H        13.71377766     27.00662384     13.14047575
H        14.29571255     28.66886587     12.85072226
H        15.08797246     27.31019212     12.10149683
C        19.48690286     25.00636917      4.42913590
C        20.38172547     25.99940231      4.04051220
C        18.11744132     25.23637751      4.22778075
C        17.67301188     26.40050263      3.59116502
C        18.61226811     27.32221020      3.10643082
C        19.99771044     27.12064695      3.31174789
H        20.82233724     27.78535362      2.96425589
H        21.43635308     25.84479883      4.20350748
H        19.75928364     24.19382224      5.07127791
H        16.62084768     26.68936575      3.43475398
H        18.28571821     28.15613878      2.55629659
C        17.03620756     24.29309225      4.88824922
H        17.22804742     24.14271993      5.96701339
H        17.02101038     23.27582293      4.52219288
H        16.11827738     24.86487568      4.81145722
C         7.52228669     26.49804471     13.76178866
C         8.70573393     27.06628311     14.32515511
C         7.45613604     25.95177538     12.50710903
C         8.61628707     26.08150512     11.72826592
C         9.78295364     26.67853367     12.16359373
C         9.84904646     27.12895192     13.51224460
H        10.72901470     27.77410962     13.71773500
H         8.66827948     27.64802743     15.24884087
H         6.53226662     26.54681091     14.33464615
H         8.52448422     25.64015876     10.66117193
H        10.59405060     26.89547774     11.49548907
C         6.12747899     25.69097548     11.83297290
H         5.68693183     26.63881042     11.61007216
H         5.47196031     25.01263242     12.42936634
H         6.33079146     25.20084133     10.86058870
C        19.39845200     22.84072356     12.59270390
C        20.16226101     23.75934464     13.32710201
C        18.04243946     23.13329539     12.24194129
C        17.45506446     24.34360295     12.75973164
C        18.25281911     25.23626474     13.51217549
C        19.61962497     24.98070664     13.74120859
H        20.16136957     25.73677553     14.32341164
H        21.25482531     23.59547942     13.45549936
H        19.95877945     22.01916533     12.08211480
H        16.43551954     24.54669041     12.53499680
H        17.82084768     26.04183859     14.04874463
C        17.11638929     22.23935808     11.42416873
H        16.79739310     21.32041665     11.89782700
H        17.60907654     21.95259699     10.48731143
H        16.20184207     22.83855762     11.10878187
C        21.92402368     34.55644934     -2.86104534
C        20.59920461     34.09258277     -2.81920384
C        22.23983153     35.90955223     -2.90610121
C        21.14699323     36.77897455     -2.94324410
C        19.84385926     36.33855424     -2.89031367
C        19.54035815     34.99951137     -2.80040393
H        18.50569476     34.63123756     -2.78579571
H        20.41904119     33.02610356     -2.66442636
H        22.65466764     33.81282922     -2.77093008
H        21.46960711     37.82106274     -3.07919338
H        18.86821480     36.90586480     -2.93338320
C        23.69595894     36.38211094     -2.77947511
H        23.84776541     37.47959965     -2.95782925
H        24.35216131     35.84998696     -3.44669601
H        24.03992304     36.21678403     -1.73997859
C        -0.24469404     27.33193479     16.76723796
C         0.99143505     28.03374548     16.58143103
C        -1.01843040     27.57817450     17.92986708
C        -0.46051882     28.44611311     18.89651526
C         0.70789057     29.22220520     18.67653108
C         1.42019455     28.99704513     17.46580923
H         2.34871382     29.57849324     17.26643748
H         1.64344304     27.77553192     15.76890702
H        -0.61892386     26.60387334     16.08133696
H        -1.04553783     28.64059214     19.81271023
H         1.06264036     29.93821106     19.38333820
C        -2.42980627     27.02384836     18.08677896
H        -2.71464542     26.17289125     17.36147919
H        -3.09140569     27.88606681     18.04260319
H        -2.56131437     26.52097905     19.04829343
C        13.31893323     36.41849629      7.18381087
C        13.43490881     37.62684854      7.95163940
C        14.45080726     35.66712083      6.80456971
C        15.71169093     36.13496866      7.21244370
C        15.88724128     37.32397793      7.98761855
C        14.75370624     38.07203746      8.29880452
H        14.83996959     39.02632308      8.81872287
H        12.59025109     38.27514473      8.15260734
H        12.39860810     36.09313201      6.78360809
H        16.58165806     35.48590908      7.04760239
H        16.83926398     37.86273249      8.08040938
C        14.24021514     34.48241471      5.91580165
H        13.11971957     34.37427182      5.66350248
H        14.58194912     33.59268742      6.46313063
H        14.83206727     34.52967708      5.00808842
C        10.82490549     32.27255807     15.97785991
C         9.63019468     32.32730556     16.69209999
C        11.64448223     31.15084814     15.71880904
C        11.19012221     29.91904954     16.24864107
C         9.97215367     29.93074506     17.04666395
C         9.19810007     31.08304295     17.20592601
H         8.31155035     31.04429737     17.89421570
H         8.98469647     33.12770526     16.82313218
H        11.21623344     33.19875943     15.60916569
H        11.67133927     28.96447564     15.95317290
H         9.61862831     28.97157000     17.43328589
C        12.84749577     31.29518492     14.88644566
H        12.59860209     31.69128531     13.90966776
H        13.35380299     30.36360798     14.70592241
H        13.41039970     32.05874832     15.42190172
C        10.88398803     22.23476320     21.79504229
C        11.20090240     21.68832402     20.51244141
C         9.54664332     22.30558589     22.18633281
C         8.58420471     21.99064283     21.17473291
C         8.91846400     21.54466457     19.90624130
C        10.24110385     21.23742095     19.59910094
H        10.52013731     20.91491894     18.62750806
H        12.28064614     21.60037441     20.21581558
H        11.71165621     22.48174235     22.49441204
H         7.60659654     21.82081047     21.52135985
H         8.14341597     21.15901454     19.15549997
C         9.01556507     22.65250034     23.53049885
H         7.94253632     22.95589922     23.61224847
H         9.50802876     23.50743883     23.99407448
H         9.20985881     21.87863779     24.29026529
C        17.19900814     30.59989578     21.09019363
C        18.41810201     31.32524377     20.89478137
C        16.19759959     30.48057797     20.10803635
C        16.49049491     31.05595651     18.87656598
C        17.72485668     31.67159802     18.61690250
C        18.67575792     31.76881142     19.61327645
H        19.56017897     32.33188486     19.32066386
H        19.14423108     31.43600510     21.74110998
H        17.04600687     30.14732921     22.08100120
H        15.82409325     30.99469317     17.98821682
H        18.03915815     32.05188376     17.59708127
C        14.85031460     29.75731323     20.38320670
H        15.00482030     28.64400494     20.49989493
H        14.20998251     29.92303715     19.46778763
H        14.31299596     30.22476566     21.22008438
C        14.90605280     15.61694496      2.40807290
C        14.97316555     14.47997049      1.56197439
C        15.92524593     16.57883136      2.36432182
C        17.05516712     16.35421182      1.50857425
C        17.13484144     15.17321386      0.73867294
C        16.07195850     14.23541063      0.73543293
H        16.12782151     13.30445215      0.11030868
H        14.18170640     13.69509532      1.70409246
H        14.15702680     15.75330620      3.25948789
H        17.91918295     17.05038076      1.44831263
H        17.99227915     14.89323907      0.10717029
C        15.92017482     17.73974611      3.33811974
H        15.28533962     17.61584909      4.22675688
H        15.65219106     18.63071402      2.76284186
H        16.93611952     18.00215674      3.61100603
C         6.75509553     37.87983714     19.06324370
C         6.82716105     38.49593765     17.81359141
C         7.23936367     36.60006238     19.22949787
C         7.57759268     35.84256541     18.10684852
C         7.71332940     36.41020397     16.87246501
C         7.36352278     37.76970822     16.78415026
H         7.54425077     38.28257300     15.77735001
H         6.31358618     39.44961790     17.60617898
H         6.36243418     38.51485774     19.88287801
H         7.82069896     34.82926504     18.31444805
H         8.04788391     35.83854692     16.00803500
C         7.57225421     36.06535910     20.60037698
H         7.18672091     35.05576293     20.80118011
H         7.37750630     36.72756967     21.41667624
H         8.63941795     35.86269632     20.63407432
C         0.43554885     32.34793788     12.51744551
C         0.72654959     31.79736094     13.79688425
C        -0.62872081     33.18601318     12.30038896
C        -1.53213598     33.42968979     13.35057610
C        -1.31271581     32.87280512     14.57590856
C        -0.22514570     32.04141072     14.77240140
H        -0.15522787     31.53382911     15.76568986
H         1.56418534     31.06364939     13.96367658
H         1.18548421     32.20432601     11.78880944
H        -2.37289321     34.19253138     13.23674265
H        -2.06330762     32.98478022     15.36706076
C        -0.89888295     33.72576390     10.88403849
H        -0.05913650     33.54781330     10.22057980
H        -1.05285999     34.74223509     10.91906443
H        -1.85768310     33.29490517     10.44767573
C         1.78991885     19.62419663     13.80404226
C         2.36915544     20.71876418     14.42615559
C         2.54985049     18.52221215     13.35131665
C         3.90993150     18.58475418     13.59434463
C         4.47576904     19.66147240     14.27812179
C         3.73572890     20.71797601     14.75026418
H         4.30271597     21.57427251     15.22899527
H         1.77193101     21.53755153     14.73633323
H         0.80469022     19.59775740     13.48419885
H         4.44784620     17.60905031     13.20805564
H         5.56647462     19.55709851     14.46814051
C         1.85898096     17.34572393     12.74982161
H         2.07421671     16.49239289     13.42244408
H         2.30838771     16.98120918     11.78059334
H         0.75642281     17.34518809     12.57757617
C        22.17616020     37.71904201      5.97555875
C        20.97816537     37.71645713      5.14730354
C        22.49732159     36.64693416      6.81194821
C        21.49205352     35.66184210      7.02989702
C        20.28750302     35.73437367      6.31182550
C        20.01489359     36.76502965      5.33956838
H        19.04889802     36.80428303      4.89470887
H        20.83730921     38.52660161      4.42793913
H        22.97514668     38.43247109      5.78901699
H        21.72944759     34.84447165      7.68138562
H        19.52154220     35.00942022      6.38425972
C        23.87881876     36.57267483      7.42897777
H        24.20172968     37.56916352      7.80481296
H        24.66520487     36.24024692      6.74360223
H        23.87093353     35.88599050      8.30930497
C         7.71455792     32.77022315      7.53075681
C         8.81672023     33.66491144      7.30535073
C         6.58575688     33.26456613      8.28146806
C         6.66839651     34.49317060      8.94648009
C         7.82582808     35.25715113      8.81110841
C         8.84339724     34.92688778      7.94352497
H         9.62866077     35.63521566      7.86931039
H         9.53873394     33.28728209      6.61524900
H         7.67165027     31.81898658      7.04637395
H         5.77974957     34.86170718      9.56629172
H         7.94394872     36.28514642      9.25726695
C         5.35361311     32.46774968      8.37093537
H         4.97160627     32.25525997      9.35731475
H         5.40803717     31.50927385      7.73338673
H         4.48817382     32.98314338      7.84618300
C         0.83934946     27.43907234      7.34548826
C         1.44276457     28.53622332      6.78753555
C         0.14361911     27.53227408      8.60614780
C         0.07874773     28.79519147      9.22280526
C         0.65201214     29.93183343      8.57717451
C         1.36203831     29.80811920      7.41959805
H         1.81823445     30.70729659      7.08485386
H         1.95805950     28.40219671      5.88042198
H         0.78657890     26.52603157      6.69763102
H        -0.29061957     28.99403055     10.21537651
H         0.57070499     30.93071742      9.03248932
C        -0.70441500     26.39175194      8.98016727
H        -1.75578586     26.76023673      8.84732132
H        -0.53800518     26.07782346     10.06345230
H        -0.60497231     25.45397504      8.45498031
C         1.54496941     23.46410600     -0.81761394
C         2.39043583     22.58410125     -1.56540496
C         1.85095481     24.79643676     -0.55752451
C         3.09089329     25.32998134     -1.06712957
C         3.93851205     24.47681504     -1.76995393
C         3.64717171     23.04272350     -1.90714136
H         4.36728176     22.42659791     -2.36456721
H         2.04797024     21.55147672     -1.85591331
H         0.61462422     23.07829208     -0.31795016
H         3.40081661     26.38771224     -0.87473718
H         4.90161669     24.81526125     -2.06825609
C         0.81244028     25.59610582      0.29025985
H         0.00441272     25.78181098     -0.42193377
H         1.13485245     26.51237393      0.77235969
H         0.37232450     24.95459943      1.07395339
C         4.76343873     34.05127911      2.39374188
C         4.50329880     34.12020841      1.02996444
C         5.94583779     33.46452268      2.85777330
C         6.80758489     32.81249676      1.91628550
C         6.43555567     32.83986328      0.55810962
C         5.32158318     33.55286870      0.09842320
H         5.03861316     33.53983397     -0.95959999
H         3.66234281     34.65347974      0.67262050
H         3.94689267     34.38091777      3.06008733
H         7.65783019     32.24602698      2.18216126
H         7.12768254     32.38028321     -0.09549495
C         6.27144757     33.55856428      4.31597809
H         6.27006061     34.60642326      4.63651797
H         7.34177068     33.12046240      4.52057642
H         5.53253985     32.99225116      4.94766767
C         3.26946533     22.09197302     10.01928598
C         2.95991201     20.82833609      9.52636016
C         2.82506860     23.24987243      9.30774235
C         2.36601313     23.11709929      8.02624570
C         2.31849923     21.81117577      7.48221688
C         2.48347712     20.67336484      8.24771777
H         2.20280465     19.67734492      7.83397635
H         3.20638279     19.91203639     10.11876437
H         3.74071337     22.21265151     11.02577947
H         2.05853367     24.03207269      7.48326210
H         2.08022046     21.67483127      6.44913144
C         2.76012599     24.55919201     10.11172852
H         3.60317808     25.21944113      9.85469199
H         2.86367570     24.31146259     11.19105366
H         1.76000560     24.97552271     10.02454323
C         5.07154538     30.35252472     17.61279682
C         5.39426212     29.41815169     18.60190953
C         5.47107569     30.08952876     16.29298750
C         6.05976931     28.78651310     16.00936530
C         6.29996609     27.89964555     17.00277999
C         5.98194008     28.21309678     18.30299059
H         6.19175995     27.55753195     19.15165496
H         5.17525339     29.59556638     19.70318167
H         4.53429836     31.32582395     17.77426800
H         6.40827161     28.60810109     15.01847320
H         6.90440657     26.95734777     16.80345877
C         5.18545932     31.10023224     15.19086454
H         4.41095889     30.70084509     14.48137800
H         6.07239167     31.32759835     14.59249966
H         4.88845476     32.09019337     15.54354445
C        12.34563538     25.62602943     -2.90379717
C        12.40832560     24.25681727     -3.19590541
C        13.54530177     26.34617790     -3.18437011
C        14.60340019     25.74231683     -3.85857230
C        14.63235021     24.42007865     -4.22683929
C        13.50060708     23.68961308     -3.86018041
H        13.57569270     22.62898510     -4.05438733
H        11.56615690     23.62709069     -2.95428662
H        11.59896021     26.14840280     -2.29911337
H        15.52669064     26.31325394     -3.88655634
H        15.38681634     23.95455481     -4.86259452
C        13.68123363     27.69005585     -2.56932859
H        13.05590897     28.42074402     -3.17821044
H        14.75463967     28.03086342     -2.53990045
H        13.30609508     27.62383055     -1.55297720
C         2.96459997     17.25779334     21.61070023
C         3.40428297     18.52539858     21.21176343
C         1.71437793     16.78525568     21.15814116
C         0.97466088     17.53013294     20.25622684
C         1.48786499     18.67019726     19.72119678
C         2.68231429     19.18838956     20.20485473
H         3.00621457     20.14638864     19.79052614
H         4.33341852     18.92326865     21.56833496
H         3.60001954     16.69282849     22.34970093
H         0.01077741     17.12431643     19.78808706
H         0.90833315     19.14941879     18.96037876
C         1.23997290     15.43240524     21.67299260
H         0.98539175     15.41354560     22.80004371
H         2.06847455     14.70671830     21.65647581
H         0.29877477     14.96076393     21.11605761
C        10.79688542     33.22221970      9.79401605
C        10.24371610     33.81141521     10.95421246
C        12.18745395     32.83105875      9.70741609
C        12.91665106     32.86777850     10.86523849
C        12.39517391     33.45204481     12.01551230
C        11.03598227     33.88878246     12.07302041
H        10.69331056     34.31384204     13.04611585
H         9.16992620     34.04448726     10.92612154
H        10.02377931     33.00615559      9.02632455
H        13.95922632     32.62125547     10.87458223
H        12.98850992     33.60800354     12.86304980
C        12.75306738     32.38649331      8.37990341
H        12.86455670     33.21783157      7.67282711
H        12.03348399     31.62072486      7.97291460
H        13.73922789     31.77790969      8.54134829
C        -4.89176782     37.13325948     16.74083573
C        -3.69654452     37.00098004     16.02204015
C        -5.50672596     38.37851043     16.85790650
C        -4.94924318     39.50094601     16.21610231
C        -3.78544319     39.39918571     15.45196425
C        -3.18907155     38.15350378     15.33271748
H        -2.28261309     38.06043446     14.82594427
H        -3.17674471     36.05235866     16.03880421
H        -5.33107247     36.28389002     17.21386209
H        -5.41623827     40.47068502     16.40001733
H        -3.23970264     40.23610230     14.99507366
C        -6.54464277     38.50828353     17.89971473
H        -6.43438570     37.65766852     18.60668190
H        -7.56266762     38.45517775     17.56512316
H        -6.52184252     39.42874890     18.59843499
C         8.34670424     42.73442209      7.57618176
C         9.73970773     42.62382763      7.38500221
C         7.53676733     41.65462429      8.00025640
C         8.20580333     40.42235475      8.17378125
C         9.52328270     40.24755722      7.77129920
C        10.37025905     41.37435472      7.49916090
H        11.42775183     41.27244372      7.45352066
H        10.34681530     43.45512096      7.15179684
H         7.84341052     43.65713572      7.27609040
H         7.62024521     39.55810949      8.42258739
H         9.92258020     39.23338771      7.82902675
C         6.03358828     41.50574448      8.01125918
H         5.57196265     41.30267019      7.00805414
H         5.51029739     42.40246835      8.38762452
H         5.70190375     40.66579585      8.61366164
C        25.97674420     28.85765035      3.35131318
C        25.55287958     28.58304357      2.01786580
C        25.22988217     28.52465223      4.49282555
C        24.12801612     27.64898114      4.19530150
C        23.72833441     27.35457487      2.88432750
C        24.40777452     27.88650033      1.75909274
H        24.04091353     27.76454597      0.74700545
H        26.17240909     29.05076624      1.19609740
H        26.80423406     29.52061902      3.41632142
H        23.49759237     27.26659563      5.02695020
H        22.90625826     26.70808461      2.72199897
C        25.62228819     29.12430400      5.81911147
H        24.78949587     29.01718687      6.51798049
H        25.94178677     30.16578928      5.64723050
H        26.59294200     28.64628695      6.14148566
C        17.06766256     21.57302034     17.80657670
C        17.20240810     22.72724587     16.94920024
C        17.97685988     20.49567477     17.67189969
C        19.07991447     20.65764789     16.73424403
C        19.39120286     21.91961900     16.22142214
C        18.38571996     22.92966662     16.22225010
H        18.47446451     23.79836975     15.61174504
H        16.48094670     23.51372530     16.92516110
H        16.26251559     21.56729000     18.52949663
H        19.78329315     19.81525856     16.58991926
H        20.32176925     22.12484661     15.62669993
C        17.98835543     19.37546467     18.59286049
H        18.22552611     19.72579243     19.56077384
H        18.71084388     18.62362083     18.33093515
H        16.98308168     18.88330925     18.55782856
C         6.90630011     46.09837601      4.94074665
C         8.01145494     46.11840459      4.06554653
C         7.12263039     46.40740413      6.28250592
C         8.43066103     46.61948130      6.81544670
C         9.53313237     46.47638377      6.01251071
C         9.34133870     46.19665699      4.62425912
H        10.25229703     46.14061473      4.02438181
H         7.86100539     46.00883519      2.97407489
H         5.91427155     45.88114460      4.50321322
H         8.61191826     46.99766012      7.83849780
H        10.50621896     46.61854329      6.48060389
C         5.92908486     46.33967539      7.28106901
H         4.93198036     46.33084519      6.73583042
H         5.94654233     47.13676192      8.03127601
H         5.98169233     45.36103926      7.74496620
C        14.03333496     23.20286234      3.79754299
C        13.70862555     21.97846646      4.39027435
C        14.63278328     23.33038202      2.50602285
C        14.91853848     22.07418143      1.81876520
C        14.64676007     20.87548826      2.38452591
C        14.03094759     20.83403427      3.64977449
H        13.70378840     19.89514693      4.12335426
H        13.24266868     22.01601225      5.35723596
H        13.86227766     24.11237189      4.35451545
H        15.50344073     22.15040578      0.84689294
H        14.84639396     19.90349790      1.91403710
C        14.90113075     24.62376771      1.70407601
H        15.32433564     25.45215947      2.26004863
H        13.99910238     25.05177712      1.24025505
H        15.64437106     24.42646224      0.88440822
C        18.47268901     30.59657060      5.37772027
C        19.58788435     31.37838087      5.08540396
C        17.13861949     31.10371421      5.17678069
C        16.98594431     32.31059609      4.49230491
C        18.13256494     33.13424536      4.25212536
C        19.40422822     32.66124590      4.56367107
H        20.21700973     33.35370326      4.34975849
H        20.58437436     30.86075358      5.24166693
H        18.66796974     29.67201284      5.89157030
H        16.09895401     32.74451099      4.14222467
H        17.98873838     34.11946025      3.82625387
C        15.95225002     30.28750165      5.54932917
H        16.12412394     29.70434447      6.51800435
H        15.65088389     29.55309440      4.79696892
H        15.14255939     31.07165523      5.75760646
C        12.19839438     22.55761153     12.70394950
C        12.51695335     21.47738821     13.55418924
C        12.49418628     22.48901236     11.28089738
C        12.98441507     21.25276479     10.80472535
C        13.13637619     20.16714091     11.66344389
C        12.92719596     20.25943135     13.02175638
H        13.19162760     19.43525416     13.74090070
H        12.40388522     21.53287682     14.65694691
H        11.87551201     23.54287675     13.14981007
H        13.21776141     21.18050132      9.72292326
H        13.47687242     19.23057148     11.27280481
C        12.19630099     23.59579039     10.31625245
H        11.19708158     23.44389106      9.95635263
H        12.86332903     23.58896519      9.47172415
H        12.23863678     24.62986252     10.75677494
C         9.03524493     24.54604880     15.88820077
C         8.87466573     23.60478098     14.88963292
C         8.42046927     24.45930489     17.11902160
C         7.52722062     23.39886839     17.36782037
C         7.38581288     22.38890531     16.39453084
C         8.03854668     22.53846965     15.16936009
H         7.88289516     21.84830726     14.33559470
H         9.29478689     23.70362058     13.88929607
H         9.76913266     25.34519497     15.64310382
H         6.98201863     23.22080836     18.31369079
H         6.76877159     21.54718653     16.56689943
C         8.68675071     25.40872910     18.28023609
H         9.29709736     26.18818456     17.96351394
H         9.13202846     24.87464498     19.12003346
H         7.79821182     25.90676018     18.65137076
C        11.66040407     36.84751580     12.94011806
C        11.84442024     36.97540943     14.30416669
C        10.60400514     37.46272221     12.20401550
C         9.71768588     38.25652227     12.93413546
C         9.90110930     38.49230795     14.35034041
C        10.97329337     37.85736594     15.00969272
H        11.14616116     38.00292072     16.05671610
H        12.67377641     36.45301724     14.78500402
H        12.28825312     36.18363802     12.32479214
H         8.87901727     38.72571362     12.40410103
H         9.21121154     39.21471538     14.85553637
C        10.63954229     37.18720298     10.75811255
H         9.88473530     36.45522521     10.52227713
H        11.62073741     36.87711874     10.48361727
H        10.53634973     38.08132110     10.12940841
C         8.77770167     37.03012377     24.71626723
C         7.43159601     37.37896813     24.76481800
C         9.69865686     38.03313824     24.23952828
C         9.25064799     39.29707675     23.84350644
C         7.88492609     39.59772756     23.90666282
C         6.99435994     38.63498637     24.30002037
H         5.91141990     38.77437041     24.22786605
H         6.62320286     36.70620757     25.17968043
H         9.11280740     36.02046081     24.99695362
H         9.95424979     40.03463916     23.49874539
H         7.61765459     40.65769231     23.70079507
C        11.12772792     37.62880344     24.14336329
H        11.23273693     36.61319766     23.65774752
H        11.67251151     37.66818724     25.07871594
H        11.50766916     38.39509880     23.45710732
Cl       17.52397868     30.96878923      9.56982439
Cl       16.54879264     29.22802961      9.37752968
Cl        9.93204359     29.46585117      5.20748998
Cl       11.29200922     30.85269756      5.65027888
Cl        8.95296215     30.31785134     11.96645176
Cl        8.26022504     30.11746262     10.12888942
Cl       18.94293573     22.28947854      2.60886108
Cl       18.85342768     20.36963707      2.19642040
Cl       10.27269182     29.36332775     22.15150225
Cl       10.32652976     29.72013994     20.15600558
Cl       17.53950836     29.22696150     14.51487009
Cl       17.45585724     28.64221130     12.52948832
Cl        3.37461250     25.04526736     15.68120104
Cl        3.54558554     26.20118497     14.03287050
Cl        7.56780336     33.77240333     13.23591814
Cl        8.48329034     35.73607952     13.12165235
Cl       30.93676080     37.95213325      0.59076405
Cl       31.02178216     36.03639623      0.01892608
Cl        2.58625586     21.08237071      3.73509136
Cl        2.95389889     22.69987672      2.59778497
Cl        4.25596448     30.29406305     11.75933917
Cl        2.90769922     29.68007906     10.36442425
Cl       17.30876829     21.11042268      5.86951456
Cl       19.01573669     21.82946663      6.69983253
Cl       13.51862171     28.07901568     24.07583919
Cl       13.42903461     27.80586301     26.04836557
Cl       -4.97857934     35.77746561     13.40814504
Cl       -5.19578223     36.45016525     11.47305599
Cl        6.92451192     41.28512669     11.78873589
Cl        8.94365472     41.48052255     11.61306978
C        13.40713838     46.97947807     10.03023269
C        12.79896254     47.21554609      8.79320112
C        13.33562036     47.85900567     11.10924584
C        12.54378130     49.04996601     10.80426556
C        11.88024016     49.29686729      9.60842225
C        11.97725094     48.30310951      8.57719928
H        11.45161525     48.47051718      7.63837878
H        13.01247839     46.41161232      8.05366786
H        14.06813280     46.14588563     10.16726096