1665
i =    15001, time =     7500.500, E =     -2006.8342977331
C        33.40713838      6.97947807     10.03023269
C        32.79896254      7.21554609      8.79320112
C        33.33562036      7.85900567     11.10924584
C        32.54378130      9.04996601     10.80426556
C        31.88024016      9.29686729      9.60842225
C        31.97725094      8.30310951      8.57719928
H        31.45161525      8.47051718      7.63837878
H        33.01247839      6.41161232      8.05366786
H        34.06813280      6.14588563     10.16726096
H        32.41850642      9.78519544     11.63379474
H        31.31652931     10.22501702      9.37834407
C        34.15407374      7.67005606     12.39153352
H        33.71377766      7.00662384     13.14047575
H        34.29571255      8.66886587     12.85072226
H        35.08797246      7.31019212     12.10149683
C        39.48690286      5.00636917      4.42913590
C        40.38172547      5.99940231      4.04051220
C        38.11744132      5.23637751      4.22778075
C        37.67301188      6.40050263      3.59116502
C        38.61226811      7.32221020      3.10643082
C        39.99771044      7.12064695      3.31174789
H        40.82233724      7.78535362      2.96425589
H        41.43635308      5.84479883      4.20350748
H        39.75928364      4.19382224      5.07127791
H        36.62084768      6.68936575      3.43475398
H        38.28571821      8.15613878      2.55629659
C        37.03620756      4.29309225      4.88824922
H        37.22804742      4.14271993      5.96701339
H        37.02101038      3.27582293      4.52219288
H        36.11827738      4.86487568      4.81145722
C        27.52228669      6.49804471     13.76178866
C        28.70573393      7.06628311     14.32515511
C        27.45613604      5.95177538     12.50710903
C        28.61628707      6.08150512     11.72826592
C        29.78295364      6.67853367     12.16359373
C        29.84904646      7.12895192     13.51224460
H        30.72901470      7.77410962     13.71773500
H        28.66827948      7.64802743     15.24884087
H        26.53226662      6.54681091     14.33464615
H        28.52448422      5.64015876     10.66117193
H        30.59405060      6.89547774     11.49548907
C        26.12747899      5.69097548     11.83297290
H        25.68693183      6.63881042     11.61007216
H        25.47196031      5.01263242     12.42936634
H        26.33079146      5.20084133     10.86058870
C        39.39845200      2.84072356     12.59270390
C        40.16226101      3.75934464     13.32710201
C        38.04243946      3.13329539     12.24194129
C        37.45506446      4.34360295     12.75973164
C        38.25281911      5.23626474     13.51217549
C        39.61962497      4.98070664     13.74120859
H        40.16136957      5.73677553     14.32341164
H        41.25482531      3.59547942     13.45549936
H        39.95877945      2.01916533     12.08211480
H        36.43551954      4.54669041     12.53499680
H        37.82084768      6.04183859     14.04874463
C        37.11638929      2.23935808     11.42416873
H        36.79739310      1.32041665     11.89782700
H        37.60907654      1.95259699     10.48731143
H        36.20184207      2.83855762     11.10878187
C        41.92402368     14.55644934     -2.86104534
C        40.59920461     14.09258277     -2.81920384
C        42.23983153     15.90955223     -2.90610121
C        41.14699323     16.77897455     -2.94324410
C        39.84385926     16.33855424     -2.89031367
C        39.54035815     14.99951137     -2.80040393
H        38.50569476     14.63123756     -2.78579571
H        40.41904119     13.02610356     -2.66442636
H        42.65466764     13.81282922     -2.77093008
H        41.46960711     17.82106274     -3.07919338
H        38.86821480     16.90586480     -2.93338320
C        43.69595894     16.38211094     -2.77947511
H        43.84776541     17.47959965     -2.95782925
H        44.35216131     15.84998696     -3.44669601
H        44.03992304     16.21678403     -1.73997859
C        19.75530596      7.33193479     16.76723796
C        20.99143505      8.03374548     16.58143103
C        18.98156960      7.57817450     17.92986708
C        19.53948118      8.44611311     18.89651526
C        20.70789057      9.22220520     18.67653108
C        21.42019455      8.99704513     17.46580923
H        22.34871382      9.57849324     17.26643748
H        21.64344304      7.77553192     15.76890702
H        19.38107614      6.60387334     16.08133696
H        18.95446217      8.64059214     19.81271023
H        21.06264036      9.93821106     19.38333820
C        17.57019373      7.02384836     18.08677896
H        17.28535458      6.17289125     17.36147919
H        16.90859431      7.88606681     18.04260319
H        17.43868563      6.52097905     19.04829343
C        33.31893323     16.41849629      7.18381087
C        33.43490881     17.62684854      7.95163940
C        34.45080726     15.66712083      6.80456971
C        35.71169093     16.13496866      7.21244370
C        35.88724128     17.32397793      7.98761855
C        34.75370624     18.07203746      8.29880452
H        34.83996959     19.02632308      8.81872287
H        32.59025109     18.27514473      8.15260734
H        32.39860810     16.09313201      6.78360809
H        36.58165806     15.48590908      7.04760239
H        36.83926398     17.86273249      8.08040938
C        34.24021514     14.48241471      5.91580165
H        33.11971957     14.37427182      5.66350248
H        34.58194912     13.59268742      6.46313063
H        34.83206727     14.52967708      5.00808842
C        30.82490549     12.27255807     15.97785991
C        29.63019468     12.32730556     16.69209999
C        31.64448223     11.15084814     15.71880904
C        31.19012221      9.91904954     16.24864107
C        29.97215367      9.93074506     17.04666395
C        29.19810007     11.08304295     17.20592601
H        28.31155035     11.04429737     17.89421570
H        28.98469647     13.12770526     16.82313218
H        31.21623344     13.19875943     15.60916569
H        31.67133927      8.96447564     15.95317290
H        29.61862831      8.97157000     17.43328589
C        32.84749577     11.29518492     14.88644566
H        32.59860209     11.69128531     13.90966776
H        33.35380299     10.36360798     14.70592241
H        33.41039970     12.05874832     15.42190172
C        30.88398803      2.23476320     21.79504229
C        31.20090240      1.68832402     20.51244141
C        29.54664332      2.30558589     22.18633281
C        28.58420471      1.99064283     21.17473291
C        28.91846400      1.54466457     19.90624130
C        30.24110385      1.23742095     19.59910094
H        30.52013731      0.91491894     18.62750806
H        32.28064614      1.60037441     20.21581558
H        31.71165621      2.48174235     22.49441204
H        27.60659654      1.82081047     21.52135985
H        28.14341597      1.15901454     19.15549997
C        29.01556507      2.65250034     23.53049885
H        27.94253632      2.95589922     23.61224847
H        29.50802876      3.50743883     23.99407448
H        29.20985881      1.87863779     24.29026529
C        37.19900814     10.59989578     21.09019363
C        38.41810201     11.32524377     20.89478137
C        36.19759959     10.48057797     20.10803635
C        36.49049491     11.05595651     18.87656598
C        37.72485668     11.67159802     18.61690250
C        38.67575792     11.76881142     19.61327645
H        39.56017897     12.33188486     19.32066386
H        39.14423108     11.43600510     21.74110998
H        37.04600687     10.14732921     22.08100120
H        35.82409325     10.99469317     17.98821682
H        38.03915815     12.05188376     17.59708127
C        34.85031460      9.75731323     20.38320670
H        35.00482030      8.64400494     20.49989493
H        34.20998251      9.92303715     19.46778763
H        34.31299596     10.22476566     21.22008438
C        34.90605280     -4.38305504      2.40807290
C        34.97316555     -5.52002951      1.56197439
C        35.92524593     -3.42116864      2.36432182
C        37.05516712     -3.64578818      1.50857425
C        37.13484144     -4.82678614      0.73867294
C        36.07195850     -5.76458937      0.73543293
H        36.12782151     -6.69554785      0.11030868
H        34.18170640     -6.30490468      1.70409246
H        34.15702680     -4.24669380      3.25948789
H        37.91918295     -2.94961924      1.44831263
H        37.99227915     -5.10676093      0.10717029
C        35.92017482     -2.26025389      3.33811974
H        35.28533962     -2.38415091      4.22675688
H        35.65219106     -1.36928598      2.76284186
H        36.93611952     -1.99784326      3.61100603
C        26.75509553     17.87983714     19.06324370
C        26.82716105     18.49593765     17.81359141
C        27.23936367     16.60006238     19.22949787
C        27.57759268     15.84256541     18.10684852
C        27.71332940     16.41020397     16.87246501
C        27.36352278     17.76970822     16.78415026
H        27.54425077     18.28257300     15.77735001
H        26.31358618     19.44961790     17.60617898
H        26.36243418     18.51485774     19.88287801
H        27.82069896     14.82926504     18.31444805
H        28.04788391     15.83854692     16.00803500
C        27.57225421     16.06535910     20.60037698
H        27.18672091     15.05576293     20.80118011
H        27.37750630     16.72756967     21.41667624
H        28.63941795     15.86269632     20.63407432
C        20.43554885     12.34793788     12.51744551
C        20.72654959     11.79736094     13.79688425
C        19.37127919     13.18601318     12.30038896
C        18.46786402     13.42968979     13.35057610
C        18.68728419     12.87280512     14.57590856
C        19.77485430     12.04141072     14.77240140
H        19.84477213     11.53382911     15.76568986
H        21.56418534     11.06364939     13.96367658
H        21.18548421     12.20432601     11.78880944
H        17.62710679     14.19253138     13.23674265
H        17.93669238     12.98478022     15.36706076
C        19.10111705     13.72576390     10.88403849
H        19.94086350     13.54781330     10.22057980
H        18.94714001     14.74223509     10.91906443
H        18.14231690     13.29490517     10.44767573
C        21.78991885     -0.37580337     13.80404226
C        22.36915544      0.71876418     14.42615559
C        22.54985049     -1.47778785     13.35131665
C        23.90993150     -1.41524582     13.59434463
C        24.47576904     -0.33852760     14.27812179
C        23.73572890      0.71797601     14.75026418
H        24.30271597      1.57427251     15.22899527
H        21.77193101      1.53755153     14.73633323
H        20.80469022     -0.40224260     13.48419885
H        24.44784620     -2.39094969     13.20805564
H        25.56647462     -0.44290149     14.46814051
C        21.85898096     -2.65427607     12.74982161
H        22.07421671     -3.50760711     13.42244408
H        22.30838771     -3.01879082     11.78059334
H        20.75642281     -2.65481191     12.57757617
C        42.17616020     17.71904201      5.97555875
C        40.97816537     17.71645713      5.14730354
C        42.49732159     16.64693416      6.81194821
C        41.49205352     15.66184210      7.02989702
C        40.28750302     15.73437367      6.31182550
C        40.01489359     16.76502965      5.33956838
H        39.04889802     16.80428303      4.89470887
H        40.83730921     18.52660161      4.42793913
H        42.97514668     18.43247109      5.78901699
H        41.72944759     14.84447165      7.68138562
H        39.52154220     15.00942022      6.38425972
C        43.87881876     16.57267483      7.42897777
H        44.20172968     17.56916352      7.80481296
H        44.66520487     16.24024692      6.74360223
H        43.87093353     15.88599050      8.30930497
C        27.71455792     12.77022315      7.53075681
C        28.81672023     13.66491144      7.30535073
C        26.58575688     13.26456613      8.28146806
C        26.66839651     14.49317060      8.94648009
C        27.82582808     15.25715113      8.81110841
C        28.84339724     14.92688778      7.94352497
H        29.62866077     15.63521566      7.86931039
H        29.53873394     13.28728209      6.61524900
H        27.67165027     11.81898658      7.04637395
H        25.77974957     14.86170718      9.56629172
H        27.94394872     16.28514642      9.25726695
C        25.35361311     12.46774968      8.37093537
H        24.97160627     12.25525997      9.35731475
H        25.40803717     11.50927385      7.73338673
H        24.48817382     12.98314338      7.84618300
C        20.83934946      7.43907234      7.34548826
C        21.44276457      8.53622332      6.78753555
C        20.14361911      7.53227408      8.60614780
C        20.07874773      8.79519147      9.22280526
C        20.65201214      9.93183343      8.57717451
C        21.36203831      9.80811920      7.41959805
H        21.81823445     10.70729659      7.08485386
H        21.95805950      8.40219671      5.88042198
H        20.78657890      6.52603157      6.69763102
H        19.70938043      8.99403055     10.21537651
H        20.57070499     10.93071742      9.03248932
C        19.29558500      6.39175194      8.98016727
H        18.24421414      6.76023673      8.84732132
H        19.46199482      6.07782346     10.06345230
H        19.39502769      5.45397504      8.45498031
C        21.54496941      3.46410600     -0.81761394
C        22.39043583      2.58410125     -1.56540496
C        21.85095481      4.79643676     -0.55752451
C        23.09089329      5.32998134     -1.06712957
C        23.93851205      4.47681504     -1.76995393
C        23.64717171      3.04272350     -1.90714136
H        24.36728176      2.42659791     -2.36456721
H        22.04797024      1.55147672     -1.85591331
H        20.61462422      3.07829208     -0.31795016
H        23.40081661      6.38771224     -0.87473718
H        24.90161669      4.81526125     -2.06825609
C        20.81244028      5.59610582      0.29025985
H        20.00441272      5.78181098     -0.42193377
H        21.13485245      6.51237393      0.77235969
H        20.37232450      4.95459943      1.07395339
C        24.76343873     14.05127911      2.39374188
C        24.50329880     14.12020841      1.02996444
C        25.94583779     13.46452268      2.85777330
C        26.80758489     12.81249676      1.91628550
C        26.43555567     12.83986328      0.55810962
C        25.32158318     13.55286870      0.09842320
H        25.03861316     13.53983397     -0.95959999
H        23.66234281     14.65347974      0.67262050
H        23.94689267     14.38091777      3.06008733
H        27.65783019     12.24602698      2.18216126
H        27.12768254     12.38028321     -0.09549495
C        26.27144757     13.55856428      4.31597809
H        26.27006061     14.60642326      4.63651797
H        27.34177068     13.12046240      4.52057642
H        25.53253985     12.99225116      4.94766767
C        23.26946533      2.09197302     10.01928598
C        22.95991201      0.82833609      9.52636016
C        22.82506860      3.24987243      9.30774235
C        22.36601313      3.11709929      8.02624570
C        22.31849923      1.81117577      7.48221688
C        22.48347712      0.67336484      8.24771777
H        22.20280465     -0.32265508      7.83397635
H        23.20638279     -0.08796361     10.11876437
H        23.74071337      2.21265151     11.02577947
H        22.05853367      4.03207269      7.48326210
H        22.08022046      1.67483127      6.44913144
C        22.76012599      4.55919201     10.11172852
H        23.60317808      5.21944113      9.85469199
H        22.86367570      4.31146259     11.19105366
H        21.76000560      4.97552271     10.02454323
C        25.07154538     10.35252472     17.61279682
C        25.39426212      9.41815169     18.60190953
C        25.47107569     10.08952876     16.29298750
C        26.05976931      8.78651310     16.00936530
C        26.29996609      7.89964555     17.00277999
C        25.98194008      8.21309678     18.30299059
H        26.19175995      7.55753195     19.15165496
H        25.17525339      9.59556638     19.70318167
H        24.53429836     11.32582395     17.77426800
H        26.40827161      8.60810109     15.01847320
H        26.90440657      6.95734777     16.80345877
C        25.18545932     11.10023224     15.19086454
H        24.41095889     10.70084509     14.48137800
H        26.07239167     11.32759835     14.59249966
H        24.88845476     12.09019337     15.54354445
C        32.34563538      5.62602943     -2.90379717
C        32.40832560      4.25681727     -3.19590541
C        33.54530177      6.34617790     -3.18437011
C        34.60340019      5.74231683     -3.85857230
C        34.63235021      4.42007865     -4.22683929
C        33.50060708      3.68961308     -3.86018041
H        33.57569270      2.62898510     -4.05438733
H        31.56615690      3.62709069     -2.95428662
H        31.59896021      6.14840280     -2.29911337
H        35.52669064      6.31325394     -3.88655634
H        35.38681634      3.95455481     -4.86259452
C        33.68123363      7.69005585     -2.56932859
H        33.05590897      8.42074402     -3.17821044
H        34.75463967      8.03086342     -2.53990045
H        33.30609508      7.62383055     -1.55297720
C        22.96459997     -2.74220666     21.61070023
C        23.40428297     -1.47460142     21.21176343
C        21.71437793     -3.21474432     21.15814116
C        20.97466088     -2.46986706     20.25622684
C        21.48786499     -1.32980274     19.72119678
C        22.68231429     -0.81161044     20.20485473
H        23.00621457      0.14638864     19.79052614
H        24.33341852     -1.07673135     21.56833496
H        23.60001954     -3.30717151     22.34970093
H        20.01077741     -2.87568357     19.78808706
H        20.90833315     -0.85058121     18.96037876
C        21.23997290     -4.56759476     21.67299260
H        20.98539175     -4.58645440     22.80004371
H        22.06847455     -5.29328170     21.65647581
H        20.29877477     -5.03923607     21.11605761
C        30.79688542     13.22221970      9.79401605
C        30.24371610     13.81141521     10.95421246
C        32.18745395     12.83105875      9.70741609
C        32.91665106     12.86777850     10.86523849
C        32.39517391     13.45204481     12.01551230
C        31.03598227     13.88878246     12.07302041
H        30.69331056     14.31384204     13.04611585
H        29.16992620     14.04448726     10.92612154
H        30.02377931     13.00615559      9.02632455
H        33.95922632     12.62125547     10.87458223
H        32.98850992     13.60800354     12.86304980
C        32.75306738     12.38649331      8.37990341
H        32.86455670     13.21783157      7.67282711
H        32.03348399     11.62072486      7.97291460
H        33.73922789     11.77790969      8.54134829
C        15.10823218     17.13325948     16.74083573
C        16.30345548     17.00098004     16.02204015
C        14.49327404     18.37851043     16.85790650
C        15.05075682     19.50094601     16.21610231
C        16.21455681     19.39918571     15.45196425
C        16.81092845     18.15350378     15.33271748
H        17.71738691     18.06043446     14.82594427
H        16.82325529     16.05235866     16.03880421
H        14.66892753     16.28389002     17.21386209
H        14.58376173     20.47068502     16.40001733
H        16.76029736     20.23610230     14.99507366
C        13.45535723     18.50828353     17.89971473
H        13.56561430     17.65766852     18.60668190
H        12.43733238     18.45517775     17.56512316
H        13.47815748     19.42874890     18.59843499
C        28.34670424     22.73442209      7.57618176
C        29.73970773     22.62382763      7.38500221
C        27.53676733     21.65462429      8.00025640
C        28.20580333     20.42235475      8.17378125
C        29.52328270     20.24755722      7.77129920
C        30.37025905     21.37435472      7.49916090
H        31.42775183     21.27244372      7.45352066
H        30.34681530     23.45512096      7.15179684
H        27.84341052     23.65713572      7.27609040
H        27.62024521     19.55810949      8.42258739
H        29.92258020     19.23338771      7.82902675
C        26.03358828     21.50574448      8.01125918
H        25.57196265     21.30267019      7.00805414
H        25.51029739     22.40246835      8.38762452
H        25.70190375     20.66579585      8.61366164
C        45.97674420      8.85765035      3.35131318
C        45.55287958      8.58304357      2.01786580
C        45.22988217      8.52465223      4.49282555
C        44.12801612      7.64898114      4.19530150
C        43.72833441      7.35457487      2.88432750
C        44.40777452      7.88650033      1.75909274
H        44.04091353      7.76454597      0.74700545
H        46.17240909      9.05076624      1.19609740
H        46.80423406      9.52061902      3.41632142
H        43.49759237      7.26659563      5.02695020
H        42.90625826      6.70808461      2.72199897
C        45.62228819      9.12430400      5.81911147
H        44.78949587      9.01718687      6.51798049
H        45.94178677     10.16578928      5.64723050
H        46.59294200      8.64628695      6.14148566
C        37.06766256      1.57302034     17.80657670
C        37.20240810      2.72724587     16.94920024
C        37.97685988      0.49567477     17.67189969
C        39.07991447      0.65764789     16.73424403
C        39.39120286      1.91961900     16.22142214
C        38.38571996      2.92966662     16.22225010
H        38.47446451      3.79836975     15.61174504
H        36.48094670      3.51372530     16.92516110
H        36.26251559      1.56729000     18.52949663
H        39.78329315     -0.18474144     16.58991926
H        40.32176925      2.12484661     15.62669993
C        37.98835543     -0.62453533     18.59286049
H        38.22552611     -0.27420757     19.56077384
H        38.71084388     -1.37637917     18.33093515
H        36.98308168     -1.11669075     18.55782856
C        26.90630011     26.09837601      4.94074665
C        28.01145494     26.11840459      4.06554653
C        27.12263039     26.40740413      6.28250592
C        28.43066103     26.61948130      6.81544670
C        29.53313237     26.47638377      6.01251071
C        29.34133870     26.19665699      4.62425912
H        30.25229703     26.14061473      4.02438181
H        27.86100539     26.00883519      2.97407489
H        25.91427155     25.88114460      4.50321322
H        28.61191826     26.99766012      7.83849780
H        30.50621896     26.61854329      6.48060389
C        25.92908486     26.33967539      7.28106901
H        24.93198036     26.33084519      6.73583042
H        25.94654233     27.13676192      8.03127601
H        25.98169233     25.36103926      7.74496620
C        34.03333496      3.20286234      3.79754299
C        33.70862555      1.97846646      4.39027435
C        34.63278328      3.33038202      2.50602285
C        34.91853848      2.07418143      1.81876520
C        34.64676007      0.87548826      2.38452591
C        34.03094759      0.83403427      3.64977449
H        33.70378840     -0.10485307      4.12335426
H        33.24266868      2.01601225      5.35723596
H        33.86227766      4.11237189      4.35451545
H        35.50344073      2.15040578      0.84689294
H        34.84639396     -0.09650210      1.91403710
C        34.90113075      4.62376771      1.70407601
H        35.32433564      5.45215947      2.26004863
H        33.99910238      5.05177712      1.24025505
H        35.64437106      4.42646224      0.88440822
C        38.47268901     10.59657060      5.37772027
C        39.58788435     11.37838087      5.08540396
C        37.13861949     11.10371421      5.17678069
C        36.98594431     12.31059609      4.49230491
C        38.13256494     13.13424536      4.25212536
C        39.40422822     12.66124590      4.56367107
H        40.21700973     13.35370326      4.34975849
H        40.58437436     10.86075358      5.24166693
H        38.66796974      9.67201284      5.89157030
H        36.09895401     12.74451099      4.14222467
H        37.98873838     14.11946025      3.82625387
C        35.95225002     10.28750165      5.54932917
H        36.12412394      9.70434447      6.51800435
H        35.65088389      9.55309440      4.79696892
H        35.14255939     11.07165523      5.75760646
C        32.19839438      2.55761153     12.70394950
C        32.51695335      1.47738821     13.55418924
C        32.49418628      2.48901236     11.28089738
C        32.98441507      1.25276479     10.80472535
C        33.13637619      0.16714091     11.66344389
C        32.92719596      0.25943135     13.02175638
H        33.19162760     -0.56474584     13.74090070
H        32.40388522      1.53287682     14.65694691
H        31.87551201      3.54287675     13.14981007
H        33.21776141      1.18050132      9.72292326
H        33.47687242     -0.76942852     11.27280481
C        32.19630099      3.59579039     10.31625245
H        31.19708158      3.44389106      9.95635263
H        32.86332903      3.58896519      9.47172415
H        32.23863678      4.62986252     10.75677494
C        29.03524493      4.54604880     15.88820077
C        28.87466573      3.60478098     14.88963292
C        28.42046927      4.45930489     17.11902160
C        27.52722062      3.39886839     17.36782037
C        27.38581288      2.38890531     16.39453084
C        28.03854668      2.53846965     15.16936009
H        27.88289516      1.84830726     14.33559470
H        29.29478689      3.70362058     13.88929607
H        29.76913266      5.34519497     15.64310382
H        26.98201863      3.22080836     18.31369079
H        26.76877159      1.54718653     16.56689943
C        28.68675071      5.40872910     18.28023609
H        29.29709736      6.18818456     17.96351394
H        29.13202846      4.87464498     19.12003346
H        27.79821182      5.90676018     18.65137076
C        31.66040407     16.84751580     12.94011806
C        31.84442024     16.97540943     14.30416669
C        30.60400514     17.46272221     12.20401550
C        29.71768588     18.25652227     12.93413546
C        29.90110930     18.49230795     14.35034041
C        30.97329337     17.85736594     15.00969272
H        31.14616116     18.00292072     16.05671610
H        32.67377641     16.45301724     14.78500402
H        32.28825312     16.18363802     12.32479214
H        28.87901727     18.72571362     12.40410103
H        29.21121154     19.21471538     14.85553637
C        30.63954229     17.18720298     10.75811255
H        29.88473530     16.45522521     10.52227713
H        31.62073741     16.87711874     10.48361727
H        30.53634973     18.08132110     10.12940841
C        28.77770167     17.03012377     24.71626723
C        27.43159601     17.37896813     24.76481800
C        29.69865686     18.03313824     24.23952828
C        29.25064799     19.29707675     23.84350644
C        27.88492609     19.59772756     23.90666282
C        26.99435994     18.63498637     24.30002037
H        25.91141990     18.77437041     24.22786605
H        26.62320286     16.70620757     25.17968043
H        29.11280740     16.02046081     24.99695362
H        29.95424979     20.03463916     23.49874539
H        27.61765459     20.65769231     23.70079507
C        31.12772792     17.62880344     24.14336329
H        31.23273693     16.61319766     23.65774752
H        31.67251151     17.66818724     25.07871594
H        31.50766916     18.39509880     23.45710732
Cl       37.52397868     10.96878923      9.56982439
Cl       36.54879264      9.22802961      9.37752968
Cl       29.93204359      9.46585117      5.20748998
Cl       31.29200922     10.85269756      5.65027888
Cl       28.95296215     10.31785134     11.96645176
Cl       28.26022504     10.11746262     10.12888942
Cl       38.94293573      2.28947854      2.60886108
Cl       38.85342768      0.36963707      2.19642040
Cl       30.27269182      9.36332775     22.15150225
Cl       30.32652976      9.72013994     20.15600558
Cl       37.53950836      9.22696150     14.51487009
Cl       37.45585724      8.64221130     12.52948832
Cl       23.37461250      5.04526736     15.68120104
Cl       23.54558554      6.20118497     14.03287050
Cl       27.56780336     13.77240333     13.23591814
Cl       28.48329034     15.73607952     13.12165235
Cl       50.93676080     17.95213325      0.59076405
Cl       51.02178216     16.03639623      0.01892608
Cl       22.58625586      1.08237071      3.73509136
Cl       22.95389889      2.69987672      2.59778497
Cl       24.25596448     10.29406305     11.75933917
Cl       22.90769922      9.68007906     10.36442425
Cl       37.30876829      1.11042268      5.86951456
Cl       39.01573669      1.82946663      6.69983253
Cl       33.51862171      8.07901568     24.07583919
Cl       33.42903461      7.80586301     26.04836557
Cl       15.02142066     15.77746561     13.40814504
Cl       14.80421777     16.45016525     11.47305599
Cl       26.92451192     21.28512669     11.78873589
Cl       28.94365472     21.48052255     11.61306978
C        53.40713838      6.97947807     10.03023269
C        52.79896254      7.21554609      8.79320112
C        53.33562036      7.85900567     11.10924584
C        52.54378130      9.04996601     10.80426556
C        51.88024016      9.29686729      9.60842225
C        51.97725094      8.30310951      8.57719928
H        51.45161525      8.47051718      7.63837878
H        53.01247839      6.41161232      8.05366786
H        54.06813280      6.14588563     10.16726096