1665
i =    15001, time =     7500.500, E =     -2006.8342977331
C        13.40713838      6.97947807     30.03023269
C        12.79896254      7.21554609     28.79320112
C        13.33562036      7.85900567     31.10924584
C        12.54378130      9.04996601     30.80426556
C        11.88024016      9.29686729     29.60842225
C        11.97725094      8.30310951     28.57719928
H        11.45161525      8.47051718     27.63837878
H        13.01247839      6.41161232     28.05366786
H        14.06813280      6.14588563     30.16726096
H        12.41850642      9.78519544     31.63379474
H        11.31652931     10.22501702     29.37834407
C        14.15407374      7.67005606     32.39153352
H        13.71377766      7.00662384     33.14047575
H        14.29571255      8.66886587     32.85072226
H        15.08797246      7.31019212     32.10149683
C        19.48690286      5.00636917     24.42913590
C        20.38172547      5.99940231     24.04051220
C        18.11744132      5.23637751     24.22778075
C        17.67301188      6.40050263     23.59116502
C        18.61226811      7.32221020     23.10643082
C        19.99771044      7.12064695     23.31174789
H        20.82233724      7.78535362     22.96425589
H        21.43635308      5.84479883     24.20350748
H        19.75928364      4.19382224     25.07127791
H        16.62084768      6.68936575     23.43475398
H        18.28571821      8.15613878     22.55629659
C        17.03620756      4.29309225     24.88824922
H        17.22804742      4.14271993     25.96701339
H        17.02101038      3.27582293     24.52219288
H        16.11827738      4.86487568     24.81145722
C         7.52228669      6.49804471     33.76178866
C         8.70573393      7.06628311     34.32515511
C         7.45613604      5.95177538     32.50710903
C         8.61628707      6.08150512     31.72826592
C         9.78295364      6.67853367     32.16359373
C         9.84904646      7.12895192     33.51224460
H        10.72901470      7.77410962     33.71773500
H         8.66827948      7.64802743     35.24884087
H         6.53226662      6.54681091     34.33464615
H         8.52448422      5.64015876     30.66117193
H        10.59405060      6.89547774     31.49548907
C         6.12747899      5.69097548     31.83297290
H         5.68693183      6.63881042     31.61007216
H         5.47196031      5.01263242     32.42936634
H         6.33079146      5.20084133     30.86058870
C        19.39845200      2.84072356     32.59270390
C        20.16226101      3.75934464     33.32710201
C        18.04243946      3.13329539     32.24194129
C        17.45506446      4.34360295     32.75973164
C        18.25281911      5.23626474     33.51217549
C        19.61962497      4.98070664     33.74120859
H        20.16136957      5.73677553     34.32341164
H        21.25482531      3.59547942     33.45549936
H        19.95877945      2.01916533     32.08211480
H        16.43551954      4.54669041     32.53499680
H        17.82084768      6.04183859     34.04874463
C        17.11638929      2.23935808     31.42416873
H        16.79739310      1.32041665     31.89782700
H        17.60907654      1.95259699     30.48731143
H        16.20184207      2.83855762     31.10878187
C        21.92402368     14.55644934     17.13895466
C        20.59920461     14.09258277     17.18079616
C        22.23983153     15.90955223     17.09389879
C        21.14699323     16.77897455     17.05675590
C        19.84385926     16.33855424     17.10968633
C        19.54035815     14.99951137     17.19959607
H        18.50569476     14.63123756     17.21420429
H        20.41904119     13.02610356     17.33557364
H        22.65466764     13.81282922     17.22906992
H        21.46960711     17.82106274     16.92080662
H        18.86821480     16.90586480     17.06661680
C        23.69595894     16.38211094     17.22052489
H        23.84776541     17.47959965     17.04217075
H        24.35216131     15.84998696     16.55330399
H        24.03992304     16.21678403     18.26002141
C        -0.24469404      7.33193479     36.76723796
C         0.99143505      8.03374548     36.58143103
C        -1.01843040      7.57817450     37.92986708
C        -0.46051882      8.44611311     38.89651526
C         0.70789057      9.22220520     38.67653108
C         1.42019455      8.99704513     37.46580923
H         2.34871382      9.57849324     37.26643748
H         1.64344304      7.77553192     35.76890702
H        -0.61892386      6.60387334     36.08133696
H        -1.04553783      8.64059214     39.81271023
H         1.06264036      9.93821106     39.38333820
C        -2.42980627      7.02384836     38.08677896
H        -2.71464542      6.17289125     37.36147919
H        -3.09140569      7.88606681     38.04260319
H        -2.56131437      6.52097905     39.04829343
C        13.31893323     16.41849629     27.18381087
C        13.43490881     17.62684854     27.95163940
C        14.45080726     15.66712083     26.80456971
C        15.71169093     16.13496866     27.21244370
C        15.88724128     17.32397793     27.98761855
C        14.75370624     18.07203746     28.29880452
H        14.83996959     19.02632308     28.81872287
H        12.59025109     18.27514473     28.15260734
H        12.39860810     16.09313201     26.78360809
H        16.58165806     15.48590908     27.04760239
H        16.83926398     17.86273249     28.08040938
C        14.24021514     14.48241471     25.91580165
H        13.11971957     14.37427182     25.66350248
H        14.58194912     13.59268742     26.46313063
H        14.83206727     14.52967708     25.00808842
C        10.82490549     12.27255807     35.97785991
C         9.63019468     12.32730556     36.69209999
C        11.64448223     11.15084814     35.71880904
C        11.19012221      9.91904954     36.24864107
C         9.97215367      9.93074506     37.04666395
C         9.19810007     11.08304295     37.20592601
H         8.31155035     11.04429737     37.89421570
H         8.98469647     13.12770526     36.82313218
H        11.21623344     13.19875943     35.60916569
H        11.67133927      8.96447564     35.95317290
H         9.61862831      8.97157000     37.43328589
C        12.84749577     11.29518492     34.88644566
H        12.59860209     11.69128531     33.90966776
H        13.35380299     10.36360798     34.70592241
H        13.41039970     12.05874832     35.42190172
C        10.88398803      2.23476320     41.79504229
C        11.20090240      1.68832402     40.51244141
C         9.54664332      2.30558589     42.18633281
C         8.58420471      1.99064283     41.17473291
C         8.91846400      1.54466457     39.90624130
C        10.24110385      1.23742095     39.59910094
H        10.52013731      0.91491894     38.62750806
H        12.28064614      1.60037441     40.21581558
H        11.71165621      2.48174235     42.49441204
H         7.60659654      1.82081047     41.52135985
H         8.14341597      1.15901454     39.15549997
C         9.01556507      2.65250034     43.53049885
H         7.94253632      2.95589922     43.61224847
H         9.50802876      3.50743883     43.99407448
H         9.20985881      1.87863779     44.29026529
C        17.19900814     10.59989578     41.09019363
C        18.41810201     11.32524377     40.89478137
C        16.19759959     10.48057797     40.10803635
C        16.49049491     11.05595651     38.87656598
C        17.72485668     11.67159802     38.61690250
C        18.67575792     11.76881142     39.61327645
H        19.56017897     12.33188486     39.32066386
H        19.14423108     11.43600510     41.74110998
H        17.04600687     10.14732921     42.08100120
H        15.82409325     10.99469317     37.98821682
H        18.03915815     12.05188376     37.59708127
C        14.85031460      9.75731323     40.38320670
H        15.00482030      8.64400494     40.49989493
H        14.20998251      9.92303715     39.46778763
H        14.31299596     10.22476566     41.22008438
C        14.90605280     -4.38305504     22.40807290
C        14.97316555     -5.52002951     21.56197439
C        15.92524593     -3.42116864     22.36432182
C        17.05516712     -3.64578818     21.50857425
C        17.13484144     -4.82678614     20.73867294
C        16.07195850     -5.76458937     20.73543293
H        16.12782151     -6.69554785     20.11030868
H        14.18170640     -6.30490468     21.70409246
H        14.15702680     -4.24669380     23.25948789
H        17.91918295     -2.94961924     21.44831263
H        17.99227915     -5.10676093     20.10717029
C        15.92017482     -2.26025389     23.33811974
H        15.28533962     -2.38415091     24.22675688
H        15.65219106     -1.36928598     22.76284186
H        16.93611952     -1.99784326     23.61100603
C         6.75509553     17.87983714     39.06324370
C         6.82716105     18.49593765     37.81359141
C         7.23936367     16.60006238     39.22949787
C         7.57759268     15.84256541     38.10684852
C         7.71332940     16.41020397     36.87246501
C         7.36352278     17.76970822     36.78415026
H         7.54425077     18.28257300     35.77735001
H         6.31358618     19.44961790     37.60617898
H         6.36243418     18.51485774     39.88287801
H         7.82069896     14.82926504     38.31444805
H         8.04788391     15.83854692     36.00803500
C         7.57225421     16.06535910     40.60037698
H         7.18672091     15.05576293     40.80118011
H         7.37750630     16.72756967     41.41667624
H         8.63941795     15.86269632     40.63407432
C         0.43554885     12.34793788     32.51744551
C         0.72654959     11.79736094     33.79688425
C        -0.62872081     13.18601318     32.30038896
C        -1.53213598     13.42968979     33.35057610
C        -1.31271581     12.87280512     34.57590856
C        -0.22514570     12.04141072     34.77240140
H        -0.15522787     11.53382911     35.76568986
H         1.56418534     11.06364939     33.96367658
H         1.18548421     12.20432601     31.78880944
H        -2.37289321     14.19253138     33.23674265
H        -2.06330762     12.98478022     35.36706076
C        -0.89888295     13.72576390     30.88403849
H        -0.05913650     13.54781330     30.22057980
H        -1.05285999     14.74223509     30.91906443
H        -1.85768310     13.29490517     30.44767573
C         1.78991885     -0.37580337     33.80404226
C         2.36915544      0.71876418     34.42615559
C         2.54985049     -1.47778785     33.35131665
C         3.90993150     -1.41524582     33.59434463
C         4.47576904     -0.33852760     34.27812179
C         3.73572890      0.71797601     34.75026418
H         4.30271597      1.57427251     35.22899527
H         1.77193101      1.53755153     34.73633323
H         0.80469022     -0.40224260     33.48419885
H         4.44784620     -2.39094969     33.20805564
H         5.56647462     -0.44290149     34.46814051
C         1.85898096     -2.65427607     32.74982161
H         2.07421671     -3.50760711     33.42244408
H         2.30838771     -3.01879082     31.78059334
H         0.75642281     -2.65481191     32.57757617
C        22.17616020     17.71904201     25.97555875
C        20.97816537     17.71645713     25.14730354
C        22.49732159     16.64693416     26.81194821
C        21.49205352     15.66184210     27.02989702
C        20.28750302     15.73437367     26.31182550
C        20.01489359     16.76502965     25.33956838
H        19.04889802     16.80428303     24.89470887
H        20.83730921     18.52660161     24.42793913
H        22.97514668     18.43247109     25.78901699
H        21.72944759     14.84447165     27.68138562
H        19.52154220     15.00942022     26.38425972
C        23.87881876     16.57267483     27.42897777
H        24.20172968     17.56916352     27.80481296
H        24.66520487     16.24024692     26.74360223
H        23.87093353     15.88599050     28.30930497
C         7.71455792     12.77022315     27.53075681
C         8.81672023     13.66491144     27.30535073
C         6.58575688     13.26456613     28.28146806
C         6.66839651     14.49317060     28.94648009
C         7.82582808     15.25715113     28.81110841
C         8.84339724     14.92688778     27.94352497
H         9.62866077     15.63521566     27.86931039
H         9.53873394     13.28728209     26.61524900
H         7.67165027     11.81898658     27.04637395
H         5.77974957     14.86170718     29.56629172
H         7.94394872     16.28514642     29.25726695
C         5.35361311     12.46774968     28.37093537
H         4.97160627     12.25525997     29.35731475
H         5.40803717     11.50927385     27.73338673
H         4.48817382     12.98314338     27.84618300
C         0.83934946      7.43907234     27.34548826
C         1.44276457      8.53622332     26.78753555
C         0.14361911      7.53227408     28.60614780
C         0.07874773      8.79519147     29.22280526
C         0.65201214      9.93183343     28.57717451
C         1.36203831      9.80811920     27.41959805
H         1.81823445     10.70729659     27.08485386
H         1.95805950      8.40219671     25.88042198
H         0.78657890      6.52603157     26.69763102
H        -0.29061957      8.99403055     30.21537651
H         0.57070499     10.93071742     29.03248932
C        -0.70441500      6.39175194     28.98016727
H        -1.75578586      6.76023673     28.84732132
H        -0.53800518      6.07782346     30.06345230
H        -0.60497231      5.45397504     28.45498031
C         1.54496941      3.46410600     19.18238606
C         2.39043583      2.58410125     18.43459504
C         1.85095481      4.79643676     19.44247549
C         3.09089329      5.32998134     18.93287043
C         3.93851205      4.47681504     18.23004607
C         3.64717171      3.04272350     18.09285864
H         4.36728176      2.42659791     17.63543279
H         2.04797024      1.55147672     18.14408669
H         0.61462422      3.07829208     19.68204984
H         3.40081661      6.38771224     19.12526282
H         4.90161669      4.81526125     17.93174391
C         0.81244028      5.59610582     20.29025985
H         0.00441272      5.78181098     19.57806623
H         1.13485245      6.51237393     20.77235969
H         0.37232450      4.95459943     21.07395339
C         4.76343873     14.05127911     22.39374188
C         4.50329880     14.12020841     21.02996444
C         5.94583779     13.46452268     22.85777330
C         6.80758489     12.81249676     21.91628550
C         6.43555567     12.83986328     20.55810962
C         5.32158318     13.55286870     20.09842320
H         5.03861316     13.53983397     19.04040001
H         3.66234281     14.65347974     20.67262050
H         3.94689267     14.38091777     23.06008733
H         7.65783019     12.24602698     22.18216126
H         7.12768254     12.38028321     19.90450505
C         6.27144757     13.55856428     24.31597809
H         6.27006061     14.60642326     24.63651797
H         7.34177068     13.12046240     24.52057642
H         5.53253985     12.99225116     24.94766767
C         3.26946533      2.09197302     30.01928598
C         2.95991201      0.82833609     29.52636016
C         2.82506860      3.24987243     29.30774235
C         2.36601313      3.11709929     28.02624570
C         2.31849923      1.81117577     27.48221688
C         2.48347712      0.67336484     28.24771777
H         2.20280465     -0.32265508     27.83397635
H         3.20638279     -0.08796361     30.11876437
H         3.74071337      2.21265151     31.02577947
H         2.05853367      4.03207269     27.48326210
H         2.08022046      1.67483127     26.44913144
C         2.76012599      4.55919201     30.11172852
H         3.60317808      5.21944113     29.85469199
H         2.86367570      4.31146259     31.19105366
H         1.76000560      4.97552271     30.02454323
C         5.07154538     10.35252472     37.61279682
C         5.39426212      9.41815169     38.60190953
C         5.47107569     10.08952876     36.29298750
C         6.05976931      8.78651310     36.00936530
C         6.29996609      7.89964555     37.00277999
C         5.98194008      8.21309678     38.30299059
H         6.19175995      7.55753195     39.15165496
H         5.17525339      9.59556638     39.70318167
H         4.53429836     11.32582395     37.77426800
H         6.40827161      8.60810109     35.01847320
H         6.90440657      6.95734777     36.80345877
C         5.18545932     11.10023224     35.19086454
H         4.41095889     10.70084509     34.48137800
H         6.07239167     11.32759835     34.59249966
H         4.88845476     12.09019337     35.54354445
C        12.34563538      5.62602943     17.09620283
C        12.40832560      4.25681727     16.80409459
C        13.54530177      6.34617790     16.81562989
C        14.60340019      5.74231683     16.14142770
C        14.63235021      4.42007865     15.77316071
C        13.50060708      3.68961308     16.13981959
H        13.57569270      2.62898510     15.94561267
H        11.56615690      3.62709069     17.04571338
H        11.59896021      6.14840280     17.70088663
H        15.52669064      6.31325394     16.11344366
H        15.38681634      3.95455481     15.13740548
C        13.68123363      7.69005585     17.43067141
H        13.05590897      8.42074402     16.82178956
H        14.75463967      8.03086342     17.46009955
H        13.30609508      7.62383055     18.44702280
C         2.96459997     -2.74220666     41.61070023
C         3.40428297     -1.47460142     41.21176343
C         1.71437793     -3.21474432     41.15814116
C         0.97466088     -2.46986706     40.25622684
C         1.48786499     -1.32980274     39.72119678
C         2.68231429     -0.81161044     40.20485473
H         3.00621457      0.14638864     39.79052614
H         4.33341852     -1.07673135     41.56833496
H         3.60001954     -3.30717151     42.34970093
H         0.01077741     -2.87568357     39.78808706
H         0.90833315     -0.85058121     38.96037876
C         1.23997290     -4.56759476     41.67299260
H         0.98539175     -4.58645440     42.80004371
H         2.06847455     -5.29328170     41.65647581
H         0.29877477     -5.03923607     41.11605761
C        10.79688542     13.22221970     29.79401605
C        10.24371610     13.81141521     30.95421246
C        12.18745395     12.83105875     29.70741609
C        12.91665106     12.86777850     30.86523849
C        12.39517391     13.45204481     32.01551230
C        11.03598227     13.88878246     32.07302041
H        10.69331056     14.31384204     33.04611585
H         9.16992620     14.04448726     30.92612154
H        10.02377931     13.00615559     29.02632455
H        13.95922632     12.62125547     30.87458223
H        12.98850992     13.60800354     32.86304980
C        12.75306738     12.38649331     28.37990341
H        12.86455670     13.21783157     27.67282711
H        12.03348399     11.62072486     27.97291460
H        13.73922789     11.77790969     28.54134829
C        -4.89176782     17.13325948     36.74083573
C        -3.69654452     17.00098004     36.02204015
C        -5.50672596     18.37851043     36.85790650
C        -4.94924318     19.50094601     36.21610231
C        -3.78544319     19.39918571     35.45196425
C        -3.18907155     18.15350378     35.33271748
H        -2.28261309     18.06043446     34.82594427
H        -3.17674471     16.05235866     36.03880421
H        -5.33107247     16.28389002     37.21386209
H        -5.41623827     20.47068502     36.40001733
H        -3.23970264     20.23610230     34.99507366
C        -6.54464277     18.50828353     37.89971473
H        -6.43438570     17.65766852     38.60668190
H        -7.56266762     18.45517775     37.56512316
H        -6.52184252     19.42874890     38.59843499
C         8.34670424     22.73442209     27.57618176
C         9.73970773     22.62382763     27.38500221
C         7.53676733     21.65462429     28.00025640
C         8.20580333     20.42235475     28.17378125
C         9.52328270     20.24755722     27.77129920
C        10.37025905     21.37435472     27.49916090
H        11.42775183     21.27244372     27.45352066
H        10.34681530     23.45512096     27.15179684
H         7.84341052     23.65713572     27.27609040
H         7.62024521     19.55810949     28.42258739
H         9.92258020     19.23338771     27.82902675
C         6.03358828     21.50574448     28.01125918
H         5.57196265     21.30267019     27.00805414
H         5.51029739     22.40246835     28.38762452
H         5.70190375     20.66579585     28.61366164
C        25.97674420      8.85765035     23.35131318
C        25.55287958      8.58304357     22.01786580
C        25.22988217      8.52465223     24.49282555
C        24.12801612      7.64898114     24.19530150
C        23.72833441      7.35457487     22.88432750
C        24.40777452      7.88650033     21.75909274
H        24.04091353      7.76454597     20.74700545
H        26.17240909      9.05076624     21.19609740
H        26.80423406      9.52061902     23.41632142
H        23.49759237      7.26659563     25.02695020
H        22.90625826      6.70808461     22.72199897
C        25.62228819      9.12430400     25.81911147
H        24.78949587      9.01718687     26.51798049
H        25.94178677     10.16578928     25.64723050
H        26.59294200      8.64628695     26.14148566
C        17.06766256      1.57302034     37.80657670
C        17.20240810      2.72724587     36.94920024
C        17.97685988      0.49567477     37.67189969
C        19.07991447      0.65764789     36.73424403
C        19.39120286      1.91961900     36.22142214
C        18.38571996      2.92966662     36.22225010
H        18.47446451      3.79836975     35.61174504
H        16.48094670      3.51372530     36.92516110
H        16.26251559      1.56729000     38.52949663
H        19.78329315     -0.18474144     36.58991926
H        20.32176925      2.12484661     35.62669993
C        17.98835543     -0.62453533     38.59286049
H        18.22552611     -0.27420757     39.56077384
H        18.71084388     -1.37637917     38.33093515
H        16.98308168     -1.11669075     38.55782856
C         6.90630011     26.09837601     24.94074665
C         8.01145494     26.11840459     24.06554653
C         7.12263039     26.40740413     26.28250592
C         8.43066103     26.61948130     26.81544670
C         9.53313237     26.47638377     26.01251071
C         9.34133870     26.19665699     24.62425912
H        10.25229703     26.14061473     24.02438181
H         7.86100539     26.00883519     22.97407489
H         5.91427155     25.88114460     24.50321322
H         8.61191826     26.99766012     27.83849780
H        10.50621896     26.61854329     26.48060389
C         5.92908486     26.33967539     27.28106901
H         4.93198036     26.33084519     26.73583042
H         5.94654233     27.13676192     28.03127601
H         5.98169233     25.36103926     27.74496620
C        14.03333496      3.20286234     23.79754299
C        13.70862555      1.97846646     24.39027435
C        14.63278328      3.33038202     22.50602285
C        14.91853848      2.07418143     21.81876520
C        14.64676007      0.87548826     22.38452591
C        14.03094759      0.83403427     23.64977449
H        13.70378840     -0.10485307     24.12335426
H        13.24266868      2.01601225     25.35723596
H        13.86227766      4.11237189     24.35451545
H        15.50344073      2.15040578     20.84689294
H        14.84639396     -0.09650210     21.91403710
C        14.90113075      4.62376771     21.70407601
H        15.32433564      5.45215947     22.26004863
H        13.99910238      5.05177712     21.24025505
H        15.64437106      4.42646224     20.88440822
C        18.47268901     10.59657060     25.37772027
C        19.58788435     11.37838087     25.08540396
C        17.13861949     11.10371421     25.17678069
C        16.98594431     12.31059609     24.49230491
C        18.13256494     13.13424536     24.25212536
C        19.40422822     12.66124590     24.56367107
H        20.21700973     13.35370326     24.34975849
H        20.58437436     10.86075358     25.24166693
H        18.66796974      9.67201284     25.89157030
H        16.09895401     12.74451099     24.14222467
H        17.98873838     14.11946025     23.82625387
C        15.95225002     10.28750165     25.54932917
H        16.12412394      9.70434447     26.51800435
H        15.65088389      9.55309440     24.79696892
H        15.14255939     11.07165523     25.75760646
C        12.19839438      2.55761153     32.70394950
C        12.51695335      1.47738821     33.55418924
C        12.49418628      2.48901236     31.28089738
C        12.98441507      1.25276479     30.80472535
C        13.13637619      0.16714091     31.66344389
C        12.92719596      0.25943135     33.02175638
H        13.19162760     -0.56474584     33.74090070
H        12.40388522      1.53287682     34.65694691
H        11.87551201      3.54287675     33.14981007
H        13.21776141      1.18050132     29.72292326
H        13.47687242     -0.76942852     31.27280481
C        12.19630099      3.59579039     30.31625245
H        11.19708158      3.44389106     29.95635263
H        12.86332903      3.58896519     29.47172415
H        12.23863678      4.62986252     30.75677494
C         9.03524493      4.54604880     35.88820077
C         8.87466573      3.60478098     34.88963292
C         8.42046927      4.45930489     37.11902160
C         7.52722062      3.39886839     37.36782037
C         7.38581288      2.38890531     36.39453084
C         8.03854668      2.53846965     35.16936009
H         7.88289516      1.84830726     34.33559470
H         9.29478689      3.70362058     33.88929607
H         9.76913266      5.34519497     35.64310382
H         6.98201863      3.22080836     38.31369079
H         6.76877159      1.54718653     36.56689943
C         8.68675071      5.40872910     38.28023609
H         9.29709736      6.18818456     37.96351394
H         9.13202846      4.87464498     39.12003346
H         7.79821182      5.90676018     38.65137076
C        11.66040407     16.84751580     32.94011806
C        11.84442024     16.97540943     34.30416669
C        10.60400514     17.46272221     32.20401550
C         9.71768588     18.25652227     32.93413546
C         9.90110930     18.49230795     34.35034041
C        10.97329337     17.85736594     35.00969272
H        11.14616116     18.00292072     36.05671610
H        12.67377641     16.45301724     34.78500402
H        12.28825312     16.18363802     32.32479214
H         8.87901727     18.72571362     32.40410103
H         9.21121154     19.21471538     34.85553637
C        10.63954229     17.18720298     30.75811255
H         9.88473530     16.45522521     30.52227713
H        11.62073741     16.87711874     30.48361727
H        10.53634973     18.08132110     30.12940841
C         8.77770167     17.03012377     44.71626723
C         7.43159601     17.37896813     44.76481800
C         9.69865686     18.03313824     44.23952828
C         9.25064799     19.29707675     43.84350644
C         7.88492609     19.59772756     43.90666282
C         6.99435994     18.63498637     44.30002037
H         5.91141990     18.77437041     44.22786605
H         6.62320286     16.70620757     45.17968043
H         9.11280740     16.02046081     44.99695362
H         9.95424979     20.03463916     43.49874539
H         7.61765459     20.65769231     43.70079507
C        11.12772792     17.62880344     44.14336329
H        11.23273693     16.61319766     43.65774752
H        11.67251151     17.66818724     45.07871594
H        11.50766916     18.39509880     43.45710732
Cl       17.52397868     10.96878923     29.56982439
Cl       16.54879264      9.22802961     29.37752968
Cl        9.93204359      9.46585117     25.20748998
Cl       11.29200922     10.85269756     25.65027888
Cl        8.95296215     10.31785134     31.96645176
Cl        8.26022504     10.11746262     30.12888942
Cl       18.94293573      2.28947854     22.60886108
Cl       18.85342768      0.36963707     22.19642040
Cl       10.27269182      9.36332775     42.15150225
Cl       10.32652976      9.72013994     40.15600558
Cl       17.53950836      9.22696150     34.51487009
Cl       17.45585724      8.64221130     32.52948832
Cl        3.37461250      5.04526736     35.68120104
Cl        3.54558554      6.20118497     34.03287050
Cl        7.56780336     13.77240333     33.23591814
Cl        8.48329034     15.73607952     33.12165235
Cl       30.93676080     17.95213325     20.59076405
Cl       31.02178216     16.03639623     20.01892608
Cl        2.58625586      1.08237071     23.73509136
Cl        2.95389889      2.69987672     22.59778497
Cl        4.25596448     10.29406305     31.75933917
Cl        2.90769922      9.68007906     30.36442425
Cl       17.30876829      1.11042268     25.86951456
Cl       19.01573669      1.82946663     26.69983253
Cl       13.51862171      8.07901568     44.07583919
Cl       13.42903461      7.80586301     46.04836557
Cl       -4.97857934     15.77746561     33.40814504
Cl       -5.19578223     16.45016525     31.47305599
Cl        6.92451192     21.28512669     31.78873589
Cl        8.94365472     21.48052255     31.61306978
C        13.40713838      6.97947807     50.03023269
C        12.79896254      7.21554609     48.79320112
C        13.33562036      7.85900567     51.10924584
C        12.54378130      9.04996601     50.80426556
C        11.88024016      9.29686729     49.60842225
C        11.97725094      8.30310951     48.57719928
H        11.45161525      8.47051718     47.63837878
H        13.01247839      6.41161232     48.05366786
H        14.06813280      6.14588563     50.16726096