48
	Energy:     504.5980870
C         -0.76246       -2.83679        0.18661
C         -0.36970       -4.10429        0.10183
C          0.98565       -4.07119        0.03606
C          1.32904       -2.78484        0.07020
N          0.26063       -2.02742        0.03546
C          2.66404       -2.33326        0.05920
C          2.94808       -1.08625       -0.12249
C          4.18754       -0.63070       -0.31836
C          4.07831        0.67474       -0.65025
C          2.80036        0.96440       -0.49430
N          2.08945       -0.09689       -0.17605
C          2.37366        2.28064       -0.44747
C          1.16053        2.58339       -0.20651
C          0.76901        3.84731       -0.06213
C         -0.56332        3.81412        0.06707
C         -0.89897        2.53240       -0.01086
N          0.15399        1.74380       -0.12142
C         -2.11196        2.16604       -0.06437
C         -2.44612        0.83645       -0.11127
C         -3.69873        0.45969       -0.28429
C         -3.71202       -0.84985        0.01295
C         -2.44216       -1.21948        0.16975
N         -1.64210       -0.18375        0.08255
C         -2.10161       -2.45184        0.28814
H         -1.04306       -4.91443        0.05446
H          1.68924       -4.84812       -0.07030
H          3.44940       -3.05591        0.10948
H          5.04294       -1.22286       -0.22953
H          4.80789        1.39916       -0.89043
H          3.11293        3.04977       -0.52846
H          1.41816        4.67084       -0.14051
H         -1.25816        4.60444        0.11084
H         -2.90941        2.88224       -0.05311
H         -4.52192       -1.50954        0.05021
H         -2.85286       -3.20871        0.33755
Fe         0.22365       -0.15617       -0.04358
S          0.12290       -0.03159        2.01289
C          1.72433       -0.09707        2.75613
C          1.25789       -0.37476        4.16517
N          2.47913        1.16630        2.61859
H          2.39283       -0.93285        2.46416
H          3.15060        1.25791        3.40555
H          1.89046        2.02625        2.53215
O          2.15489       -0.34776        5.13826
O          0.10544       -0.71922        4.45215
H         -4.48245        1.11786       -0.55761
O          0.16113       -0.24923       -1.72365
H          3.11914        1.11757        1.80520
