13
	Energy:       7.2707165
H          1.67849       -2.02136        1.21672
C          0.97840       -1.37299        0.69529
C         -0.38784       -1.45570        0.96802
H         -0.74914       -2.17043        1.70332
C         -1.28167       -0.62107        0.29576
Cl        -2.96532       -0.72729        0.63596
C         -0.82434        0.29658       -0.64737
H         -1.52356        0.94415       -1.16814
C          0.54077        0.37351       -0.91441
Cl         1.12022        1.50236       -2.07700
C          1.44388       -0.45606       -0.24831
H          2.50843       -0.39264       -0.45984
Cl         10.12022        1.50236       -2.07700
